Siesta Version: siesta-4.0b-485
Architecture  : x86_64-unknown-linux-gnu--unknown
Compiler flags: mpif90 -g -O2
PP flags      : -DMPI -DFC_HAVE_FLUSH -DFC_HAVE_ABORT 
PARALLEL version

* Running in serial mode with MPI
>> Start of run:   3-JUL-2022  11:45:11

                           ***********************       
                           *  WELCOME TO SIESTA  *       
                           ***********************       

reinit: Reading from standard input
************************** Dump of input data file ****************************
#################################################################
#		General system descritprs
#################################################################
SystemName   Germanio
SystemLabel  Ge
NumberOfAtoms    2
NumberOfSpecies  1
%block ChemicalSpeciesLabel
    1     32   Ge
%endblock ChemicalSpeciesLabel
LatticeConstant  4.0  Ang
%block LatticeParameters
1.0    1.0	100.	90.	90.	120.
%endblock LatticeParameters
AtomicCoordinatesFormat ScaledByLatticeVectors
%block AtomicCoordinatesAndAtomicSpecies
0.666666     0.3333333333   0.000000       1
0.333333     0.6666666666    0.000000       1
%endblock AtomicCoordinatesAndAtomicSpecies
BandLinesScale ReciprocalLatticeVectors
%block BandLines
 1    0.00000     0.0000000     0.0000   \Gamma
 35   0.000000    0.5000000     0.00000  X
 40   0.333333    0.3333333     0.0000   K
 50   0.00000     0.0000        0.0000   \Gamma
%endblock BandLines
xc.functional         GGA
xc.authors            PBE
SpinPolarized         True
%block kgrid_Monkhorst_Pack
  7   0   0    0.5
  0   7   0    0.5
  0   0   1    0.5
%endblock kgrid_Monkhorst_Pack
MaxSCFIterations    300
DM.MixingWeight       0.20
DM.NumberPulay         4
DM.Tolerance          1.d-5
# Aquí va la base del germanio
PAO.EnergyShift 0.02 eV
************************** End of input data file *****************************

reinit: -----------------------------------------------------------------------
reinit: System Name: Germanio
reinit: -----------------------------------------------------------------------
reinit: System Label: Ge                                                          
reinit: -----------------------------------------------------------------------

initatom: Reading input for the pseudopotentials and atomic orbitals ----------
 Species number:            1  Label: Ge Atomic number:          32
Ground state valence configuration:   4s02  4p02
Reading pseudopotential information in formatted form from Ge.psf

Pseudopotential generated from an atomic spin-polarized calculation

Valence configuration for pseudopotential generation:
4s(1.00,1.00) rc: 1.71
4p(1.00,1.00) rc: 2.78
4d(0.00,0.00) rc: 2.78
4f(0.00,0.00) rc: 2.78
For Ge, standard SIESTA heuristics set lmxkb to 3
 (one more than the basis l, including polarization orbitals).
Use PS.lmax or PS.KBprojectors blocks to override.

<basis_specs>
===============================================================================
Ge                   Z=  32    Mass=  72.610        Charge= 0.17977+309
Lmxo=1 Lmxkb= 3    BasisType=split      Semic=F
L=0  Nsemic=0  Cnfigmx=4
          n=1  nzeta=2  polorb=0
            splnorm:   0.15000    
               vcte:    0.0000    
               rinn:    0.0000    
               qcoe:    0.0000    
               qyuk:    0.0000    
               qwid:   0.10000E-01
                rcs:    0.0000      0.0000    
            lambdas:    1.0000      1.0000    
L=1  Nsemic=0  Cnfigmx=4
          n=1  nzeta=2  polorb=1
            splnorm:   0.15000    
               vcte:    0.0000    
               rinn:    0.0000    
               qcoe:    0.0000    
               qyuk:    0.0000    
               qwid:   0.10000E-01
                rcs:    0.0000      0.0000    
            lambdas:    1.0000      1.0000    
-------------------------------------------------------------------------------
L=0  Nkbl=1  erefs: 0.17977+309
L=1  Nkbl=1  erefs: 0.17977+309
L=2  Nkbl=1  erefs: 0.17977+309
L=3  Nkbl=1  erefs: 0.17977+309
===============================================================================
</basis_specs>

atom: Called for Ge                    (Z =  32)

read_vps: Pseudopotential generation method:
read_vps: ATM3      Troullier-Martins                       
Total valence charge:    4.00000

xc_check: Exchange-correlation functional:
xc_check: GGA Perdew, Burke & Ernzerhof 1996
V l=0 = -2*Zval/r beyond r=  3.3931
V l=1 = -2*Zval/r beyond r=  3.3931
V l=2 = -2*Zval/r beyond r=  3.3931
V l=3 = -2*Zval/r beyond r=  3.3931
All V_l potentials equal beyond r=  2.7435
This should be close to max(r_c) in ps generation
All pots = -2*Zval/r beyond r=  3.3931

VLOCAL1: 99.0% of the norm of Vloc inside      5.767 Ry
VLOCAL1: 99.9% of the norm of Vloc inside     13.143 Ry
atom: Maximum radius for 4*pi*r*r*local-pseudopot. charge    3.26820
atom: Maximum radius for r*vlocal+2*Zval:    2.84834
GHOST: No ghost state for L =  0
GHOST: No ghost state for L =  1
GHOST: No ghost state for L =  2
GHOST: No ghost state for L =  3
KBproj: WARNING: Rc( 3)=      4.5233
KBproj: WARNING: Cut of radius for the KB projector too big
KBproj: WARNING: Increasing the tolerance parameter eps
KBproj: WARNING: might be a good idea

KBgen: Kleinman-Bylander projectors: 
   l= 0   rc=  3.478989   el= -0.837835   Ekb=  8.967115   kbcos=  0.125675
   l= 1   rc=  3.942222   el= -0.288963   Ekb=  1.050541   kbcos=  0.220882
   l= 2   rc=  4.356837   el=  0.001966   Ekb=  0.324663   kbcos=  0.110508
   l= 3   rc=  4.523323   el=  0.003058   Ekb= -0.683346   kbcos= -0.015375

KBgen: Total number of  Kleinman-Bylander projectors:   16
atom: -------------------------------------------------------------------------

atom: SANKEY-TYPE ORBITALS:
atom: Selected multiple-zeta basis: split     

SPLIT: Orbitals with angular momentum L= 0

SPLIT: Basis orbitals for state 4s

SPLIT: PAO cut-off radius determined from an
SPLIT: energy shift=  0.001470 Ry

   izeta = 1
                 lambda =    1.000000
                     rc =    6.581432
                 energy =   -0.836666
                kinetic =    0.568688
    potential(screened) =   -1.405353
       potential(ionic) =   -3.808417

   izeta = 2
                 rmatch =    4.523323
              splitnorm =    0.150000
                 energy =   -0.745858
                kinetic =    0.907519
    potential(screened) =   -1.653377
       potential(ionic) =   -4.163372

SPLIT: Orbitals with angular momentum L= 1

SPLIT: Basis orbitals for state 4p

SPLIT: PAO cut-off radius determined from an
SPLIT: energy shift=  0.001470 Ry

   izeta = 1
                 lambda =    1.000000
                     rc =    8.884031
                 energy =   -0.287537
                kinetic =    0.724997
    potential(screened) =   -1.012533
       potential(ionic) =   -3.143790

   izeta = 2
                 rmatch =    5.594311
              splitnorm =    0.150000
                 energy =   -0.217722
                kinetic =    1.069984
    potential(screened) =   -1.287706
       potential(ionic) =   -3.620872

POLgen: Perturbative polarization orbital with L=  2

POLgen: Polarization orbital for state 4p

   izeta = 1
                     rc =    8.884031
                 energy =    0.288436
                kinetic =    0.985202
    potential(screened) =   -0.696766
       potential(ionic) =   -2.585389
atom: Total number of Sankey-type orbitals: 13

atm_pop: Valence configuration (for local Pseudopot. screening):
 4s( 2.00)                                                            
 4p( 2.00)                                                            
Vna: chval, zval:    4.00000   4.00000

Vna:  Cut-off radius for the neutral-atom potential:   8.884031

atom: _________________________________________________________________________

prinput: Basis input ----------------------------------------------------------

PAO.BasisType split     

%block ChemicalSpeciesLabel
    1   32 Ge                      # Species index, atomic number, species label
%endblock ChemicalSpeciesLabel

%block PAO.Basis                 # Define Basis set
Ge                    2                    # Species label, number of l-shells
 n=4   0   2                         # n, l, Nzeta 
   6.581      4.523   
   1.000      1.000   
 n=4   1   2 P   1                   # n, l, Nzeta, Polarization, NzetaPol
   8.884      5.594   
   1.000      1.000   
%endblock PAO.Basis

prinput: ----------------------------------------------------------------------

coor:   Atomic-coordinates input format  =     Fractional

siesta: Atomic coordinates (Bohr) and species
siesta:      3.77945   2.18207   0.00000  1        1
siesta:     -0.00000   4.36414   0.00000  1        2

siesta: System type = slab      

initatomlists: Number of atoms, orbitals, and projectors:      2    26    32

siesta: ******************** Simulation parameters ****************************
siesta:
siesta: The following are some of the parameters of the simulation.
siesta: A complete list of the parameters used, including default values,
siesta: can be found in file out.fdf
siesta:
redata: Non-Collinear-spin run           =     F
redata: SpinPolarized (Up/Down) run      =     T
redata: Number of spin components        =     2
redata: Long output                      =     F
redata: Number of Atomic Species         =        1
redata: Charge density info will appear in .RHO file
redata: Write Mulliken Pop.              =     NO
redata: Mesh Cutoff                      =   100.0000  Ry
redata: Net charge of the system         =     0.0000 |e|
redata: Min. number of SCF Iter          =        0
redata: Max. number of SCF Iter          =      300
redata: Mix DM or H after convergence    =     F
redata: Recompute H after scf cycle      =     F
redata: Performing Pulay mixing using    =     4 iterations
redata: Mix DM in first SCF step ?       =     F
redata: Write Pulay info on disk?        =     F
redata: Discard 1st Pulay DM after  kick =     F
redata: New DM Mixing Weight             =     0.2000
redata: New DM Occupancy tolerance       = 0.000000000001
redata: No kicks to SCF
redata: DM Mixing Weight for Kicks       =     0.5000
redata: DM Tolerance for SCF             =     0.000010
redata: Require (free) Energy convergence in SCF =     F
redata: DM (free)Energy tolerance for SCF =     0.000010 eV
redata: Require Harris convergence for SCF =     F
redata: DM Harris energy tolerance for SCF =     0.000010 eV
redata: Antiferro initial spin density   =     F
redata: Using Saved Data (generic)   =     F
redata: Use continuation files for DM    =     F
redata: Neglect nonoverlap interactions  =     F
redata: Method of Calculation            =     Diagonalization
redata: Divide and Conquer               =     T
redata: Electronic Temperature           =     0.0019  Ry
redata: Fix the spin of the system       =     F
redata: Dynamics option                  =     Single-point calculation
redata: ***********************************************************************
Total number of electrons:     8.000000
Total ionic charge:     8.000000

* ProcessorY, Blocksize:    1  24


* Orbital distribution balance (max,min):    26    26

k-point displ. along   1 input, could be:     0.50    0.00
k-point displ. along   2 input, could be:     0.50    0.00
k-point displ. along   3 input, could be:     0.50    0.00
 Kpoints in:           28 . Kpoints trimmed:           28

siesta: k-grid: Number of k-points =    28
siesta: k-grid: Cutoff (effective) =    14.000 Ang
siesta: k-grid: Supercell and displacements
siesta: k-grid:    7   0   0      0.500
siesta: k-grid:    0   7   0      0.500
siesta: k-grid:    0   0   1      0.500
Naive supercell factors:     8    8    1

superc: Internal auxiliary supercell:     8 x     8 x     1  =      64
superc: Number of atoms, orbitals, and projectors:    128   1664   2048

                     ====================================
                        Single-point calculation
                     ====================================

superc: Internal auxiliary supercell:     8 x     8 x     1  =      64
superc: Number of atoms, orbitals, and projectors:    128   1664   2048

outcell: Unit cell vectors (Ang):
        4.000000    0.000000    0.000000
       -2.000000    3.464102    0.000000
        0.000000    0.000000  400.000000

outcell: Cell vector modules (Ang)   :    4.000000    4.000000  400.000000
outcell: Cell angles (23,13,12) (deg):     90.0000     90.0000    120.0000
outcell: Cell volume (Ang**3)        :   5542.5626
New_DM. Step:     1
Initializing Density Matrix...

initdm: Initial spin polarization (Qup-Qdown) =    4.000000
New grid distribution:   1
           1       1:   12    1:   12    1: 1215

InitMesh: MESH =    24 x    24 x  2430 =     1399680
InitMesh: (bp) =    12 x    12 x  1215 =      174960
InitMesh: Mesh cutoff (required, used) =   100.000   101.999 Ry
ExtMesh (bp) on 0 =    80 x    80 x  1275 =     8160000
PhiOnMesh: Number of (b)points on node 0 =               174960
PhiOnMesh: nlist on node 0 =               277622

stepf: Fermi-Dirac step function

siesta: Program's energy decomposition (eV):
siesta: Ebs     =       -84.521043
siesta: Eions   =       283.718919
siesta: Ena     =        47.738550
siesta: Ekin    =        70.408964
siesta: Enl     =        13.087049
siesta: DEna    =         0.000000
siesta: DUscf   =         0.000000
siesta: DUext   =         0.000000
siesta: Exc     =       -62.913613
siesta: eta*DQ  =         0.000000
siesta: Emadel  =         0.000000
siesta: Emeta   =         0.000000
siesta: Emolmec =         0.000000
siesta: Ekinion =         0.000000
siesta: Eharris =      -208.620659
siesta: Etot    =      -215.397969
siesta: FreeEng =      -215.403792

   scf: iscf   Eharris(eV)      E_KS(eV)   FreeEng(eV)    dDmax  Ef(eV)
   scf:    1     -208.6207     -215.3980     -215.4038  0.92164 -4.8563
timer: Routine,Calls,Time,% =    IterSCF     1       7.800  78.41
   scf:    2     -210.5234     -210.1295     -210.1306  0.07812 -3.9514
   scf:    3     -210.4908     -210.4811     -210.4823  0.04813 -4.1263
   scf:    4     -210.5570     -210.4932     -210.4932  0.01490 -4.4344
   scf:    5     -210.5556     -210.4924     -210.4924  0.01034 -4.3864
   scf:    6     -210.5577     -210.5710     -210.5710  0.00130 -4.3829
   scf:    7     -210.5577     -210.5637     -210.5637  0.00141 -4.3830
   scf:    8     -210.5577     -210.5587     -210.5587  0.00024 -4.3832
   scf:    9     -210.5577     -210.5583     -210.5583  0.00014 -4.3840
   scf:   10     -210.5577     -210.5580     -210.5580  0.00011 -4.3841
   scf:   11     -210.5577     -210.5576     -210.5576  0.00002 -4.3836
   scf:   12     -210.5577     -210.5576     -210.5576  0.00002 -4.3836
   scf:   13     -210.5577     -210.5577     -210.5577  0.00001 -4.3836

SCF Convergence by dMax criterion
max |DM_out - DM_in|:     0.00000939
SCF cycle converged after   13 iterations

Using DM_out to compute the final energy and forces

siesta: E_KS(eV) =             -210.5577

siesta: E_KS - E_eggbox =      -210.5577

siesta: Atomic forces (eV/Ang):
----------------------------------------
   Tot   -0.000000    0.000000    0.000000
----------------------------------------
   Max    0.074036
   Res    0.049353    sqrt( Sum f_i^2 / 3N )
----------------------------------------
   Max    0.074036    constrained

Stress-tensor-Voigt (kbar):       -0.91       -0.89       -0.00        0.02       -0.00       -0.00
(Free)E + p*V (eV/cell)     -208.4713
Target enthalpy (eV/cell)     -210.5577
Computing bands...

siesta: Program's energy decomposition (eV):
siesta: Ebs     =       -80.494008
siesta: Eions   =       283.718919
siesta: Ena     =        47.738550
siesta: Ekin    =        76.176931
siesta: Enl     =        10.781422
siesta: DEna    =         0.217571
siesta: DUscf   =         0.231916
siesta: DUext   =         0.000000
siesta: Exc     =       -61.985202
siesta: eta*DQ  =         0.000000
siesta: Emadel  =         0.000000
siesta: Emeta   =         0.000000
siesta: Emolmec =         0.000000
siesta: Ekinion =         0.000000
siesta: Eharris =      -210.557732
siesta: Etot    =      -210.557732
siesta: FreeEng =      -210.557733

siesta: Final energy (eV):
siesta:  Band Struct. =     -80.494008
siesta:       Kinetic =      76.176931
siesta:       Hartree =   13747.495906
siesta:    Ext. field =       0.000000
siesta:   Exch.-corr. =     -61.985202
siesta:  Ion-electron =  -27571.188882
siesta:       Ion-ion =   13598.943516
siesta:       Ekinion =       0.000000
siesta:         Total =    -210.557732

siesta: Atomic forces (eV/Ang):
siesta:      1    0.074036   -0.042731    0.000000
siesta:      2   -0.074036    0.042731    0.000000
siesta: ----------------------------------------
siesta:    Tot   -0.000000    0.000000    0.000000

siesta: Stress tensor (static) (eV/Ang**3):
siesta:    -0.000571    0.000011   -0.000000
siesta:     0.000011   -0.000558    0.000000
siesta:    -0.000000   -0.000000   -0.000000

siesta: Cell volume =       5542.562584 Ang**3

siesta: Pressure (static):
siesta:                Solid            Molecule  Units
siesta:           0.00000410          0.00000397  Ry/Bohr**3
siesta:           0.00037645          0.00036457  eV/Ang**3
siesta:           0.60314034          0.58411825  kBar
(Free)E+ p_basis*V_orbitals  =        -207.528041
(Free)Eharris+ p_basis*V_orbitals  =        -207.528041

siesta: Total spin polarization (Qup-Qdown) =    0.000000

siesta: Electric dipole (a.u.)  =   -0.000000    0.000000    0.000000
siesta: Electric dipole (Debye) =   -0.000000    0.000000    0.000000

timer: Elapsed wall time (sec) =      31.102
timer: CPU execution times (sec):

Routine            Calls   Time/call    Tot.time        %
siesta                 1     105.476     105.476   100.00
Setup                  1       0.164       0.164     0.16
bands                  3       2.391       7.172     6.80
writewave              1       0.000       0.000     0.00
KSV_init               1       0.000       0.000     0.00
IterGeom               1      98.120      98.120    93.03
state_init             1       0.188       0.188     0.18
hsparse                1       0.008       0.008     0.01
overlap                1       0.168       0.168     0.16
Setup_H0               1       1.796       1.796     1.70
naefs                  2       0.000       0.000     0.00
MolMec                 2       0.000       0.000     0.00
kinefsm                2       0.072       0.144     0.14
nlefsm                 2       0.664       1.328     1.26
DHSCF_Init             1       0.880       0.880     0.83
DHSCF1                 1       0.136       0.136     0.13
INITMESH               1       0.000       0.000     0.00
DHSCF2                 1       0.744       0.744     0.71
REMESH                 1       0.040       0.040     0.04
REORD                 65       0.003       0.176     0.17
PHION                  1       0.296       0.296     0.28
COMM_BSC              60       0.003       0.164     0.16
POISON                15       0.417       6.256     5.93
fft                   30       0.187       5.608     5.32
IterSCF               13       7.223      93.900    89.02
setup_H               13       1.106      14.380    13.63
DHSCF                 14       1.144      16.020    15.19
DHSCF3                14       1.097      15.360    14.56
rhoofd                14       0.298       4.168     3.95
cellXC                14       0.096       1.348     1.28
vmat                  14       0.189       2.652     2.51
compute_dm            13       6.112      79.452    75.33
diagon                13       6.110      79.424    75.30
c-eigval             980       0.027      26.880    25.48
c-buildHS            980       0.025      24.376    23.11
cdiag               1708       0.004       6.544     6.20
cdiag1              1708       0.001       0.904     0.86
cdiag2              1708       0.001       1.020     0.97
cdiag3              1708       0.003       4.276     4.05
cdiag4              1708       0.000       0.128     0.12
c-eigvec             728       0.032      22.980    21.79
c-buildD             728       0.028      20.236    19.19
MIXER                 12       0.002       0.024     0.02
WriteDM               13       0.003       0.040     0.04
PostSCF                1       2.232       2.232     2.12
DHSCF4                 1       0.660       0.660     0.63
dfscf                  1       0.604       0.604     0.57
overfsm                1       0.008       0.008     0.01
state_analysis         1       0.000       0.000     0.00
siesta_move            1       0.000       0.000     0.00
optical                1       0.000       0.000     0.00
  
>> End of run:   3-JUL-2022  11:45:42
