Siesta Version: siesta-4.0b-485
Architecture  : x86_64-unknown-linux-gnu--unknown
Compiler flags: mpif90 -g -O2
PP flags      : -DMPI -DFC_HAVE_FLUSH -DFC_HAVE_ABORT 
PARALLEL version

* Running in serial mode with MPI
>> Start of run:   2-JUL-2022  14:24:50

                           ***********************       
                           *  WELCOME TO SIESTA  *       
                           ***********************       

reinit: Reading from standard input
************************** Dump of input data file ****************************
#################################################################
#		General system descritprs
#################################################################
SystemName   Germanio
SystemLabel  Ge
NumberOfAtoms    2
NumberOfSpecies  1
%block ChemicalSpeciesLabel
    1     32   Ge
%endblock ChemicalSpeciesLabel
LatticeConstant  4.0  Ang
%block LatticeVectors
 0.500000  0.866000    0.000000
 0.500000 -0.86600000  0.000000
 0.000000  0.000000    20.00000
%endblock LatticeVectors
AtomicCoordinatesFormat Ang
%block AtomicCoordinatesAndAtomicSpecies
0.333333    0.000000    0.000000       1
0.666666    0.000000    0.000000       1
%endblock AtomicCoordinatesAndAtomicSpecies
BandLinesScale pi/a
%block BandLines
 1    0.00000   0.000   0.0000   \Gamma
 35   1.00000   1.1547  0.0000   X
 35   3.33333   0.000   0.0000   K
 35   0.00000   0.000   0.0000   \Gamma
%endblock BandLines
xc.functional         GGA
xc.authors            PBE
SpinPolarized         True
%block kgrid_Monkhorst_Pack
  7   0   0    0.5
  0   7   0    0.5
  0   0   1    0.5
%endblock kgrid_Monkhorst_Pack
MaxSCFIterations    300
DM.MixingWeight       0.20
DM.NumberPulay         4
DM.Tolerance          1.d-5
# Aquí va la base del germanio
PAO.EnergyShift 0.02 eV
************************** End of input data file *****************************

reinit: -----------------------------------------------------------------------
reinit: System Name: Germanio
reinit: -----------------------------------------------------------------------
reinit: System Label: Ge                                                          
reinit: -----------------------------------------------------------------------

initatom: Reading input for the pseudopotentials and atomic orbitals ----------
 Species number:            1  Label: Ge Atomic number:          32
Ground state valence configuration:   4s02  4p02
Reading pseudopotential information in formatted form from Ge.psf

Pseudopotential generated from an atomic spin-polarized calculation

Valence configuration for pseudopotential generation:
4s(1.00,1.00) rc: 1.71
4p(1.00,1.00) rc: 2.78
4d(0.00,0.00) rc: 2.78
4f(0.00,0.00) rc: 2.78
For Ge, standard SIESTA heuristics set lmxkb to 3
 (one more than the basis l, including polarization orbitals).
Use PS.lmax or PS.KBprojectors blocks to override.

<basis_specs>
===============================================================================
Ge                   Z=  32    Mass=  72.610        Charge= 0.17977+309
Lmxo=1 Lmxkb= 3    BasisType=split      Semic=F
L=0  Nsemic=0  Cnfigmx=4
          n=1  nzeta=2  polorb=0
            splnorm:   0.15000    
               vcte:    0.0000    
               rinn:    0.0000    
               qcoe:    0.0000    
               qyuk:    0.0000    
               qwid:   0.10000E-01
                rcs:    0.0000      0.0000    
            lambdas:    1.0000      1.0000    
L=1  Nsemic=0  Cnfigmx=4
          n=1  nzeta=2  polorb=1
            splnorm:   0.15000    
               vcte:    0.0000    
               rinn:    0.0000    
               qcoe:    0.0000    
               qyuk:    0.0000    
               qwid:   0.10000E-01
                rcs:    0.0000      0.0000    
            lambdas:    1.0000      1.0000    
-------------------------------------------------------------------------------
L=0  Nkbl=1  erefs: 0.17977+309
L=1  Nkbl=1  erefs: 0.17977+309
L=2  Nkbl=1  erefs: 0.17977+309
L=3  Nkbl=1  erefs: 0.17977+309
===============================================================================
</basis_specs>

atom: Called for Ge                    (Z =  32)

read_vps: Pseudopotential generation method:
read_vps: ATM3      Troullier-Martins                       
Total valence charge:    4.00000

xc_check: Exchange-correlation functional:
xc_check: GGA Perdew, Burke & Ernzerhof 1996
V l=0 = -2*Zval/r beyond r=  3.3931
V l=1 = -2*Zval/r beyond r=  3.3931
V l=2 = -2*Zval/r beyond r=  3.3931
V l=3 = -2*Zval/r beyond r=  3.3931
All V_l potentials equal beyond r=  2.7435
This should be close to max(r_c) in ps generation
All pots = -2*Zval/r beyond r=  3.3931

VLOCAL1: 99.0% of the norm of Vloc inside      5.767 Ry
VLOCAL1: 99.9% of the norm of Vloc inside     13.143 Ry
atom: Maximum radius for 4*pi*r*r*local-pseudopot. charge    3.26820
atom: Maximum radius for r*vlocal+2*Zval:    2.84834
GHOST: No ghost state for L =  0
GHOST: No ghost state for L =  1
GHOST: No ghost state for L =  2
GHOST: No ghost state for L =  3
KBproj: WARNING: Rc( 3)=      4.5233
KBproj: WARNING: Cut of radius for the KB projector too big
KBproj: WARNING: Increasing the tolerance parameter eps
KBproj: WARNING: might be a good idea

KBgen: Kleinman-Bylander projectors: 
   l= 0   rc=  3.478989   el= -0.837835   Ekb=  8.967115   kbcos=  0.125675
   l= 1   rc=  3.942222   el= -0.288963   Ekb=  1.050541   kbcos=  0.220882
   l= 2   rc=  4.356837   el=  0.001966   Ekb=  0.324663   kbcos=  0.110508
   l= 3   rc=  4.523323   el=  0.003058   Ekb= -0.683346   kbcos= -0.015375

KBgen: Total number of  Kleinman-Bylander projectors:   16
atom: -------------------------------------------------------------------------

atom: SANKEY-TYPE ORBITALS:
atom: Selected multiple-zeta basis: split     

SPLIT: Orbitals with angular momentum L= 0

SPLIT: Basis orbitals for state 4s

SPLIT: PAO cut-off radius determined from an
SPLIT: energy shift=  0.001470 Ry

   izeta = 1
                 lambda =    1.000000
                     rc =    6.581432
                 energy =   -0.836666
                kinetic =    0.568688
    potential(screened) =   -1.405353
       potential(ionic) =   -3.808417

   izeta = 2
                 rmatch =    4.523323
              splitnorm =    0.150000
                 energy =   -0.745858
                kinetic =    0.907519
    potential(screened) =   -1.653377
       potential(ionic) =   -4.163372

SPLIT: Orbitals with angular momentum L= 1

SPLIT: Basis orbitals for state 4p

SPLIT: PAO cut-off radius determined from an
SPLIT: energy shift=  0.001470 Ry

   izeta = 1
                 lambda =    1.000000
                     rc =    8.884031
                 energy =   -0.287537
                kinetic =    0.724997
    potential(screened) =   -1.012533
       potential(ionic) =   -3.143790

   izeta = 2
                 rmatch =    5.594311
              splitnorm =    0.150000
                 energy =   -0.217722
                kinetic =    1.069984
    potential(screened) =   -1.287706
       potential(ionic) =   -3.620872

POLgen: Perturbative polarization orbital with L=  2

POLgen: Polarization orbital for state 4p

   izeta = 1
                     rc =    8.884031
                 energy =    0.288436
                kinetic =    0.985202
    potential(screened) =   -0.696766
       potential(ionic) =   -2.585389
atom: Total number of Sankey-type orbitals: 13

atm_pop: Valence configuration (for local Pseudopot. screening):
 4s( 2.00)                                                            
 4p( 2.00)                                                            
Vna: chval, zval:    4.00000   4.00000

Vna:  Cut-off radius for the neutral-atom potential:   8.884031

atom: _________________________________________________________________________

prinput: Basis input ----------------------------------------------------------

PAO.BasisType split     

%block ChemicalSpeciesLabel
    1   32 Ge                      # Species index, atomic number, species label
%endblock ChemicalSpeciesLabel

%block PAO.Basis                 # Define Basis set
Ge                    2                    # Species label, number of l-shells
 n=4   0   2                         # n, l, Nzeta 
   6.581      4.523   
   1.000      1.000   
 n=4   1   2 P   1                   # n, l, Nzeta, Polarization, NzetaPol
   8.884      5.594   
   1.000      1.000   
%endblock PAO.Basis

prinput: ----------------------------------------------------------------------

coor:   Atomic-coordinates input format  =     Cartesian coordinates
coor:                                          (in Angstroms)

siesta: Atomic coordinates (Bohr) and species
siesta:      0.62991   0.00000   0.00000  1        1
siesta:      1.25982   0.00000   0.00000  1        2

siesta: System type = slab      

initatomlists: Number of atoms, orbitals, and projectors:      2    26    32

siesta: ******************** Simulation parameters ****************************
siesta:
siesta: The following are some of the parameters of the simulation.
siesta: A complete list of the parameters used, including default values,
siesta: can be found in file out.fdf
siesta:
redata: Non-Collinear-spin run           =     F
redata: SpinPolarized (Up/Down) run      =     T
redata: Number of spin components        =     2
redata: Long output                      =     F
redata: Number of Atomic Species         =        1
redata: Charge density info will appear in .RHO file
redata: Write Mulliken Pop.              =     NO
redata: Mesh Cutoff                      =   100.0000  Ry
redata: Net charge of the system         =     0.0000 |e|
redata: Min. number of SCF Iter          =        0
redata: Max. number of SCF Iter          =      300
redata: Mix DM or H after convergence    =     F
redata: Recompute H after scf cycle      =     F
redata: Performing Pulay mixing using    =     4 iterations
redata: Mix DM in first SCF step ?       =     F
redata: Write Pulay info on disk?        =     F
redata: Discard 1st Pulay DM after  kick =     F
redata: New DM Mixing Weight             =     0.2000
redata: New DM Occupancy tolerance       = 0.000000000001
redata: No kicks to SCF
redata: DM Mixing Weight for Kicks       =     0.5000
redata: DM Tolerance for SCF             =     0.000010
redata: Require (free) Energy convergence in SCF =     F
redata: DM (free)Energy tolerance for SCF =     0.000010 eV
redata: Require Harris convergence for SCF =     F
redata: DM Harris energy tolerance for SCF =     0.000010 eV
redata: Antiferro initial spin density   =     F
redata: Using Saved Data (generic)   =     F
redata: Use continuation files for DM    =     F
redata: Neglect nonoverlap interactions  =     F
redata: Method of Calculation            =     Diagonalization
redata: Divide and Conquer               =     T
redata: Electronic Temperature           =     0.0019  Ry
redata: Fix the spin of the system       =     F
redata: Dynamics option                  =     Single-point calculation
redata: ***********************************************************************
Total number of electrons:     8.000000
Total ionic charge:     8.000000

* ProcessorY, Blocksize:    1  24


* Orbital distribution balance (max,min):    26    26

k-point displ. along   1 input, could be:     0.50    0.00
k-point displ. along   2 input, could be:     0.50    0.00
k-point displ. along   3 input, could be:     0.50    0.00
 Kpoints in:           28 . Kpoints trimmed:           28

siesta: k-grid: Number of k-points =    28
siesta: k-grid: Cutoff (effective) =    14.000 Ang
siesta: k-grid: Supercell and displacements
siesta: k-grid:    7   0   0      0.500
siesta: k-grid:    0   7   0      0.500
siesta: k-grid:    0   0   1      0.500
Naive supercell factors:     8    8    1

superc: Internal auxiliary supercell:     8 x     8 x     1  =      64
superc: Number of atoms, orbitals, and projectors:    128   1664   2048

                     ====================================
                        Single-point calculation
                     ====================================

superc: Internal auxiliary supercell:     8 x     8 x     1  =      64
superc: Number of atoms, orbitals, and projectors:    128   1664   2048

outcell: Unit cell vectors (Ang):
        2.000000    3.464000    0.000000
        2.000000   -3.464000    0.000000
        0.000000    0.000000   80.000000

outcell: Cell vector modules (Ang)   :    3.999912    3.999912   80.000000
outcell: Cell angles (23,13,12) (deg):     90.0000     90.0000    119.9985
outcell: Cell volume (Ang**3)        :   1108.4800
siesta: WARNING: Atoms     1     2 too close: rij =    0.333333 Ang
siesta: WARNING: Atoms     3     4 too close: rij =    0.333333 Ang
siesta: WARNING: Atoms     5     6 too close: rij =    0.333333 Ang
siesta: WARNING: Atoms     7     8 too close: rij =    0.333333 Ang
siesta: WARNING: Atoms     9    10 too close: rij =    0.333333 Ang
siesta: WARNING: Atoms    11    12 too close: rij =    0.333333 Ang
siesta: WARNING: Atoms    13    14 too close: rij =    0.333333 Ang
siesta: WARNING: Atoms    15    16 too close: rij =    0.333333 Ang
siesta: WARNING: Atoms    17    18 too close: rij =    0.333333 Ang
siesta: WARNING: Atoms    19    20 too close: rij =    0.333333 Ang
siesta: WARNING: Atoms    21    22 too close: rij =    0.333333 Ang
siesta: WARNING: Atoms    23    24 too close: rij =    0.333333 Ang
siesta: WARNING: Atoms    25    26 too close: rij =    0.333333 Ang
siesta: WARNING: Atoms    27    28 too close: rij =    0.333333 Ang
siesta: WARNING: Atoms    29    30 too close: rij =    0.333333 Ang
siesta: WARNING: Atoms    31    32 too close: rij =    0.333333 Ang
siesta: WARNING: Atoms    33    34 too close: rij =    0.333333 Ang
siesta: WARNING: Atoms    35    36 too close: rij =    0.333333 Ang
siesta: WARNING: Atoms    37    38 too close: rij =    0.333333 Ang
siesta: WARNING: Atoms    39    40 too close: rij =    0.333333 Ang
siesta: WARNING: Atoms    41    42 too close: rij =    0.333333 Ang
siesta: WARNING: Atoms    43    44 too close: rij =    0.333333 Ang
siesta: WARNING: Atoms    45    46 too close: rij =    0.333333 Ang
siesta: WARNING: Atoms    47    48 too close: rij =    0.333333 Ang
siesta: WARNING: Atoms    49    50 too close: rij =    0.333333 Ang
siesta: WARNING: Atoms    51    52 too close: rij =    0.333333 Ang
siesta: WARNING: Atoms    53    54 too close: rij =    0.333333 Ang
siesta: WARNING: Atoms    55    56 too close: rij =    0.333333 Ang
siesta: WARNING: Atoms    57    58 too close: rij =    0.333333 Ang
siesta: WARNING: Atoms    59    60 too close: rij =    0.333333 Ang
siesta: WARNING: Atoms    61    62 too close: rij =    0.333333 Ang
siesta: WARNING: Atoms    63    64 too close: rij =    0.333333 Ang
siesta: WARNING: Atoms    65    66 too close: rij =    0.333333 Ang
siesta: WARNING: Atoms    67    68 too close: rij =    0.333333 Ang
siesta: WARNING: Atoms    69    70 too close: rij =    0.333333 Ang
siesta: WARNING: Atoms    71    72 too close: rij =    0.333333 Ang
siesta: WARNING: Atoms    73    74 too close: rij =    0.333333 Ang
siesta: WARNING: Atoms    75    76 too close: rij =    0.333333 Ang
siesta: WARNING: Atoms    77    78 too close: rij =    0.333333 Ang
siesta: WARNING: Atoms    79    80 too close: rij =    0.333333 Ang
siesta: WARNING: Atoms    81    82 too close: rij =    0.333333 Ang
siesta: WARNING: Atoms    83    84 too close: rij =    0.333333 Ang
siesta: WARNING: Atoms    85    86 too close: rij =    0.333333 Ang
siesta: WARNING: Atoms    87    88 too close: rij =    0.333333 Ang
siesta: WARNING: Atoms    89    90 too close: rij =    0.333333 Ang
siesta: WARNING: Atoms    91    92 too close: rij =    0.333333 Ang
siesta: WARNING: Atoms    93    94 too close: rij =    0.333333 Ang
siesta: WARNING: Atoms    95    96 too close: rij =    0.333333 Ang
siesta: WARNING: Atoms    97    98 too close: rij =    0.333333 Ang
siesta: WARNING: Atoms    99   100 too close: rij =    0.333333 Ang
siesta: WARNING: Atoms   101   102 too close: rij =    0.333333 Ang
siesta: WARNING: Atoms   103   104 too close: rij =    0.333333 Ang
siesta: WARNING: Atoms   105   106 too close: rij =    0.333333 Ang
siesta: WARNING: Atoms   107   108 too close: rij =    0.333333 Ang
siesta: WARNING: Atoms   109   110 too close: rij =    0.333333 Ang
siesta: WARNING: Atoms   111   112 too close: rij =    0.333333 Ang
siesta: WARNING: Atoms   113   114 too close: rij =    0.333333 Ang
siesta: WARNING: Atoms   115   116 too close: rij =    0.333333 Ang
siesta: WARNING: Atoms   117   118 too close: rij =    0.333333 Ang
siesta: WARNING: Atoms   119   120 too close: rij =    0.333333 Ang
siesta: WARNING: Atoms   121   122 too close: rij =    0.333333 Ang
siesta: WARNING: Atoms   123   124 too close: rij =    0.333333 Ang
siesta: WARNING: Atoms   125   126 too close: rij =    0.333333 Ang
siesta: WARNING: Atoms   127   128 too close: rij =    0.333333 Ang
New_DM. Step:     1
Initializing Density Matrix...

initdm: Initial spin polarization (Qup-Qdown) =    4.000000
New grid distribution:   1
           1       1:   12    1:   12    1:  243

InitMesh: MESH =    24 x    24 x   486 =      279936
InitMesh: (bp) =    12 x    12 x   243 =       34992
InitMesh: Mesh cutoff (required, used) =   100.000   101.999 Ry
ExtMesh (bp) on 0 =    80 x    80 x   303 =     1939200
PhiOnMesh: Number of (b)points on node 0 =                34992
PhiOnMesh: nlist on node 0 =               277622

stepf: Fermi-Dirac step function

siesta: Program's energy decomposition (eV):
siesta: Ebs     =      -119.473067
siesta: Eions   =       283.718919
siesta: Ena     =       518.375822
siesta: Ekin    =        70.408964
siesta: Enl     =        30.056397
siesta: DEna    =         0.000000
siesta: DUscf   =         0.000000
siesta: DUext   =         0.000000
siesta: Exc     =       -68.224215
siesta: eta*DQ  =         0.000000
siesta: Emadel  =         0.000000
siesta: Emeta   =         0.000000
siesta: Emolmec =         0.000000
siesta: Ekinion =         0.000000
siesta: Eharris =       278.440673
siesta: Etot    =       266.898049
siesta: FreeEng =       266.898049

   scf: iscf   Eharris(eV)      E_KS(eV)   FreeEng(eV)    dDmax  Ef(eV)
   scf:    1      278.4407      266.8980      266.8980  1.90497 -6.8923
timer: Routine,Calls,Time,% =    IterSCF     1       6.640  78.90
   scf:    2      277.0536      277.4491      277.4491  0.79416 -1.8702
   scf:    3      277.2693      275.1212      275.1212  0.24063 -3.2312
   scf:    4      277.1548      277.0260      277.0260  0.07246 -2.7175
   scf:    5      277.1555      277.2169      277.2169  0.03234 -2.6384
   scf:    6      277.1554      277.1415      277.1415  0.00561 -2.6433
   scf:    7      277.1554      277.1598      277.1598  0.00183 -2.6404
   scf:    8      277.1554      277.1615      277.1615  0.00142 -2.6401
   scf:    9      277.1554      277.1603      277.1603  0.00052 -2.6396
   scf:   10      277.1554      277.1574      277.1574  0.00024 -2.6400
   scf:   11      277.1554      277.1559      277.1559  0.00017 -2.6402
   scf:   12      277.1554      277.1557      277.1557  0.00009 -2.6404
   scf:   13      277.1554      277.1556      277.1556  0.00008 -2.6404
   scf:   14      277.1554      277.1555      277.1555  0.00004 -2.6404
   scf:   15      277.1554      277.1553      277.1553  0.00002 -2.6404
   scf:   16      277.1554      277.1553      277.1553  0.00001 -2.6404
   scf:   17      277.1554      277.1554      277.1554  0.00000 -2.6404

SCF Convergence by dMax criterion
max |DM_out - DM_in|:     0.00000458
SCF cycle converged after   17 iterations

Using DM_out to compute the final energy and forces

siesta: E_KS(eV) =              277.1554

siesta: E_KS - E_eggbox =       277.1554

siesta: Atomic forces (eV/Ang):
----------------------------------------
   Tot    0.000001    0.000000   -0.000000
----------------------------------------
   Max 2025.171290
   Res 1169.233189    sqrt( Sum f_i^2 / 3N )
----------------------------------------
   Max 2025.171290    constrained

Stress-tensor-Voigt (kbar):     -976.78       -0.57       -0.00       -0.00       -0.00       -0.00
(Free)E + p*V (eV/cell)      502.5490
Target enthalpy (eV/cell)      277.1554
Computing bands...

siesta: Program's energy decomposition (eV):
siesta: Ebs     =       -92.980550
siesta: Eions   =       283.718919
siesta: Ena     =       518.375822
siesta: Ekin    =       103.907731
siesta: Enl     =        20.660074
siesta: DEna    =       -11.423531
siesta: DUscf   =         1.312622
siesta: DUext   =         0.000000
siesta: Exc     =       -71.958372
siesta: eta*DQ  =         0.000000
siesta: Emadel  =         0.000000
siesta: Emeta   =         0.000000
siesta: Emolmec =         0.000000
siesta: Ekinion =         0.000000
siesta: Eharris =       277.155426
siesta: Etot    =       277.155426
siesta: FreeEng =       277.155426

siesta: Final energy (eV):
siesta:  Band Struct. =     -92.980550
siesta:       Kinetic =     103.907731
siesta:       Hartree =    2647.722019
siesta:    Ext. field =       0.000000
siesta:   Exch.-corr. =     -71.958372
siesta:  Ion-electron =   -5399.072713
siesta:       Ion-ion =    2996.556761
siesta:       Ekinion =       0.000000
siesta:         Total =     277.155426

siesta: Atomic forces (eV/Ang):
siesta:      1-2025.171289   -0.000000    0.000000
siesta:      2 2025.171290    0.000000   -0.000000
siesta: ----------------------------------------
siesta:    Tot    0.000001    0.000000   -0.000000

siesta: Stress tensor (static) (eV/Ang**3):
siesta:    -0.609650   -0.000000   -0.000000
siesta:    -0.000000   -0.000355   -0.000000
siesta:    -0.000000   -0.000000   -0.000002

siesta: Cell volume =       1108.480000 Ang**3

siesta: Pressure (static):
siesta:                Solid            Molecule  Units
siesta:           0.00221459          0.00000368  Ry/Bohr**3
siesta:           0.20333575          0.00033812  eV/Ang**3
siesta:         325.78330662          0.54173995  kBar
(Free)E+ p_basis*V_orbitals  =         280.185118
(Free)Eharris+ p_basis*V_orbitals  =         280.185118

siesta: Total spin polarization (Qup-Qdown) =    0.000000

siesta: Electric dipole (a.u.)  =   -0.000000   -0.000000    0.000000
siesta: Electric dipole (Debye) =   -0.000000   -0.000000    0.000000

timer: Elapsed wall time (sec) =      31.144
timer: CPU execution times (sec):

Routine            Calls   Time/call    Tot.time        %
siesta                 1     125.572     125.572   100.00
Setup                  1       0.160       0.160     0.13
bands                  3       2.089       6.268     4.99
writewave              1       0.000       0.000     0.00
KSV_init               1       0.000       0.000     0.00
IterGeom               1     119.128     119.128    94.87
state_init             1       0.188       0.188     0.15
hsparse                1       0.008       0.008     0.01
overlap                1       0.172       0.172     0.14
Setup_H0               1       1.428       1.428     1.14
naefs                  2       0.000       0.000     0.00
MolMec                 2       0.000       0.000     0.00
kinefsm                2       0.070       0.140     0.11
nlefsm                 2       0.616       1.232     0.98
DHSCF_Init             1       0.556       0.556     0.44
DHSCF1                 1       0.056       0.056     0.04
INITMESH               1       0.000       0.000     0.00
DHSCF2                 1       0.500       0.500     0.40
REMESH                 1       0.044       0.044     0.04
REORD                 81       0.000       0.024     0.02
PHION                  1       0.372       0.372     0.30
COMM_BSC              76       0.000       0.024     0.02
POISON                19       0.050       0.956     0.76
fft                   38       0.022       0.820     0.65
IterSCF               17       6.808     115.728    92.16
setup_H               17       0.727      12.352     9.84
DHSCF                 18       0.755      13.596    10.83
DHSCF3                18       0.719      12.944    10.31
rhoofd                18       0.314       5.652     4.50
cellXC                18       0.100       1.808     1.44
vmat                  18       0.236       4.244     3.38
compute_dm            17       6.075     103.268    82.24
diagon                17       6.073     103.236    82.21
c-eigval            1164       0.028      32.800    26.12
c-buildHS           1164       0.025      29.584    23.56
cdiag               2116       0.004       8.292     6.60
cdiag1              2116       0.001       1.268     1.01
cdiag2              2116       0.001       1.324     1.05
cdiag3              2116       0.003       5.368     4.27
cdiag4              2116       0.000       0.116     0.09
c-eigvec             952       0.031      29.496    23.49
c-buildD             952       0.027      26.140    20.82
MIXER                 16       0.003       0.044     0.04
WriteDM               17       0.004       0.060     0.05
PostSCF                1       1.780       1.780     1.42
DHSCF4                 1       0.652       0.652     0.52
dfscf                  1       0.616       0.616     0.49
overfsm                1       0.008       0.008     0.01
state_analysis         1       0.000       0.000     0.00
siesta_move            1       0.000       0.000     0.00
optical                1       0.000       0.000     0.00
  
>> End of run:   2-JUL-2022  14:25:22
